LAMMPS (5 Jun 2019)
  using 4 OpenMP thread(s) per MPI task
package intel 1
package intel 0
# AIREBO polyethelene benchmark

variable        N index on      # Newton Setting
variable	w index 10	# Warmup Timesteps
variable	t index 550	# Main Run Timesteps
variable	m index 1	# Main Run Timestep Multiplier
variable	n index 0	# Use NUMA Mapping for Multi-Node
variable	p index 0	# Use Power Measurement
variable	x index 4
variable	y index 2
variable	z index 2

variable	xx equal 17*$x
variable	xx equal 17*4
variable	yy equal 16*$y
variable	yy equal 16*2
variable	zz equal 2*$z
variable	zz equal 2*2
variable	rr equal floor($t*$m)
variable	rr equal floor(550*$m)
variable	rr equal floor(550*1)
variable        root getenv LMP_ROOT

newton          $N
newton          on
if "$n > 0"	then "processors * * * grid numa"

variable            root getenv LMP_ROOT

units		    metal
atom_style	    atomic

#read_data	    ${root}/examples/airebo/data.airebo
read_data	    DATA/data.airebo
  orthogonal box = (-2.1 -2.1 0) to (2.1 2.1 25.579)
  2 by 2 by 17 MPI processor grid
  reading atoms ...
  60 atoms
  read_data CPU = 0.057688 secs

replicate	    ${xx} ${yy} ${zz}
replicate	    68 ${yy} ${zz}
replicate	    68 32 ${zz}
replicate	    68 32 4
  orthogonal box = (-2.1 -2.1 0) to (283.5 132.3 102.316)
  17 by 2 by 2 MPI processor grid
  522240 atoms
  replicate CPU = 0.042311 secs

neighbor	    0.5 bin
neigh_modify	    delay 5 every 1

pair_style	    airebo/intel 3.0 1 1
#pair_coeff	    * * ${root}/potentials/CH.airebo C H
pair_coeff	    * * DATA/CH.airebo C H
Reading potential file DATA/CH.airebo with DATE: 2011-10-25

velocity	    all create 300.0 761341

fix		    1 all nve/intel
timestep	    0.0005

thermo		    50

if "$p > 0"	then "run_style verlet/power"

if "$w > 0"	then "run $w"
run $w
run 10
Neighbor list info ...
  update every 1 steps, delay 5 steps, check yes
  max neighbors/atom: 2000, page size: 100000
  master list distance cutoff = 10.7
  ghost atom cutoff = 10.7
  binsize = 5.35, bins = 54 26 20
  1 neighbor lists, perpetual/occasional/extra = 1 0 0
  (1) pair airebo/intel, perpetual
      attributes: full, newton on, ghost, intel
      pair build: full/bin/ghost/intel
      stencil: full/ghost/bin/3d
      bin: intel
Per MPI rank memory allocation (min/avg/max) = 306.6 | 306.6 | 306.6 Mbytes
Step Temp E_pair E_mol TotEng Press 
       0          300   -2228811.9            0   -2208560.5    7988.0261 
      10    161.86504     -2219442            0   -2208515.4    32797.665 
Loop time of 0.664153 on 272 procs for 10 steps with 522240 atoms

Performance: 0.650 ns/day, 36.897 hours/ns, 15.057 timesteps/s
322.5% CPU use with 68 MPI tasks x 4 OpenMP threads

MPI task timing breakdown:
Section |  min time  |  avg time  |  max time  |%varavg| %total
---------------------------------------------------------------
Pair    | 0.55993    | 0.58502    | 0.63062    |   1.2 | 88.08
Neigh   | 0          | 0          | 0          |   0.0 |  0.00
Comm    | 0.022358   | 0.047435   | 0.084436   |   5.6 |  7.14
Output  | 0.00025487 | 0.0022686  | 0.003473   |   2.6 |  0.34
Modify  | 0.0078354  | 0.0094686  | 0.010623   |   0.6 |  1.43
Other   |            | 0.01996    |            |       |  3.01

Nlocal:    7680 ave 7680 max 7680 min
Histogram: 68 0 0 0 0 0 0 0 0 0
Nghost:    26126 ave 26126 max 26126 min
Histogram: 68 0 0 0 0 0 0 0 0 0
Neighs:    0 ave 0 max 0 min
Histogram: 68 0 0 0 0 0 0 0 0 0
FullNghs:  5.29408e+06 ave 5.29408e+06 max 5.29408e+06 min
Histogram: 68 0 0 0 0 0 0 0 0 0

Total # of neighbors = 359997440
Ave neighs/atom = 689.333
Neighbor list builds = 0
Dangerous builds = 0
run		${rr}
run		550
Per MPI rank memory allocation (min/avg/max) = 306.6 | 306.6 | 306.6 Mbytes
Step Temp E_pair E_mol TotEng Press 
      10    161.86504     -2219442            0   -2208515.4    32797.665 
      50    112.55042   -2216060.9            0   -2208463.2    24857.805 
     100    179.55349   -2220641.6            0   -2208520.9    31371.904 
     150    159.69432   -2219267.9            0   -2208487.8    19498.268 
     200    161.72334   -2219415.6            0   -2208498.5   -1143.3566 
     250    163.49424   -2219538.6            0   -2208501.9   -2835.6288 
     300    163.12098   -2219508.9            0   -2208497.5    10874.605 
     350    170.64986   -2220020.9            0   -2208501.2    19401.599 
     400    174.07507   -2220251.8            0     -2208501    17910.312 
     450    162.28048   -2219451.1            0   -2208496.4    18956.059 
     500    165.45543   -2219666.5            0   -2208497.5    22667.109 
     550    175.88751   -2220375.4            0   -2208502.2    22782.229 
     560    169.42338     -2219937            0   -2208500.2    21273.401 
Loop time of 44.0513 on 272 procs for 550 steps with 522240 atoms

Performance: 0.539 ns/day, 44.496 hours/ns, 12.485 timesteps/s
342.8% CPU use with 68 MPI tasks x 4 OpenMP threads

MPI task timing breakdown:
Section |  min time  |  avg time  |  max time  |%varavg| %total
---------------------------------------------------------------
Pair    | 31.662     | 32.294     | 34.4       |   6.9 | 73.31
Neigh   | 7.3318     | 7.6538     | 8.0709     |   7.5 | 17.37
Comm    | 1.3929     | 2.7009     | 3.9986     |  32.6 |  6.13
Output  | 0.0076089  | 0.02489    | 0.038226   |   7.1 |  0.06
Modify  | 0.45088    | 0.53632    | 0.60233    |   4.3 |  1.22
Other   |            | 0.8409     |            |       |  1.91

Nlocal:    7680 ave 7696 max 7664 min
Histogram: 7 6 4 5 11 13 5 4 6 7
Nghost:    25540.8 ave 25643 max 25431 min
Histogram: 2 3 6 9 10 14 10 7 4 3
Neighs:    0 ave 0 max 0 min
Histogram: 68 0 0 0 0 0 0 0 0 0
FullNghs:  5.23221e+06 ave 5.25348e+06 max 5.21253e+06 min
Histogram: 3 3 5 14 16 7 12 4 1 3

Total # of neighbors = 355790265
Ave neighs/atom = 681.277
Neighbor list builds = 57
Dangerous builds = 0
Total wall time: 0:00:45
