LAMMPS (5 Jun 2019)
  using 4 OpenMP thread(s) per MPI task
package intel 1
package intel 0
# 3d Lennard-Jones melt

variable        N index off     # Newton Setting
variable	w index 10	# Warmup Timesteps
variable	t index 7900	# Main Run Timesteps
variable	m index 1	# Main Run Timestep Multiplier
variable	n index 0	# Use NUMA Mapping for Multi-Node
variable	p index 0	# Use Power Measurement

variable	x index 4
variable	y index 2
variable	z index 2

variable	xx equal 20*$x
variable	xx equal 20*4
variable	yy equal 20*$y
variable	yy equal 20*2
variable	zz equal 20*$z
variable	zz equal 20*2
variable	rr equal floor($t*$m)
variable	rr equal floor(7900*$m)
variable	rr equal floor(7900*1)

newton          $N
newton          off
if "$n > 0"	then "processors * * * grid numa"

units		lj
atom_style	atomic

lattice		fcc 0.8442
Lattice spacing in x,y,z = 1.6796 1.6796 1.6796
region		box block 0 ${xx} 0 ${yy} 0 ${zz}
region		box block 0 80 0 ${yy} 0 ${zz}
region		box block 0 80 0 40 0 ${zz}
region		box block 0 80 0 40 0 40
create_box	1 box
Created orthogonal box = (0 0 0) to (134.368 67.1838 67.1838)
  17 by 2 by 2 MPI processor grid
create_atoms	1 box
Created 512000 atoms
  create_atoms CPU = 0.0117629 secs
mass		1 1.0

velocity	all create 1.44 87287 loop geom

pair_style	lj/cut/intel 2.5
pair_coeff	1 1 1.0 1.0 2.5

neighbor	0.3 bin
neigh_modify	delay 0 every 20 check no

fix		1 all nve/intel
thermo		1000

if "$p > 0"	then "run_style verlet/power"

if "$w > 0"	then "run $w"
run $w
run 10
Neighbor list info ...
  update every 20 steps, delay 0 steps, check no
  max neighbors/atom: 2000, page size: 100000
  master list distance cutoff = 2.8
  ghost atom cutoff = 2.8
  binsize = 1.4, bins = 96 48 48
  1 neighbor lists, perpetual/occasional/extra = 1 0 0
  (1) pair lj/cut/intel, perpetual
      attributes: full, newton off, intel
      pair build: full/bin/intel
      stencil: full/bin/3d
      bin: intel
Per MPI rank memory allocation (min/avg/max) = 70.67 | 73.51 | 77.54 Mbytes
Step Temp E_pair E_mol TotEng Press 
       0         1.44   -6.7733683            0   -4.6133725   -5.0196711 
      10    1.1253136   -6.3000032            0   -4.6120362   -2.5604641 
Loop time of 0.0363009 on 272 procs for 10 steps with 512000 atoms

Performance: 119005.402 tau/day, 275.475 timesteps/s
148.3% CPU use with 68 MPI tasks x 4 OpenMP threads

MPI task timing breakdown:
Section |  min time  |  avg time  |  max time  |%varavg| %total
---------------------------------------------------------------
Pair    | 0.022839   | 0.024415   | 0.026287   |   0.7 | 67.26
Neigh   | 0          | 0          | 0          |   0.0 |  0.00
Comm    | 0.0049853  | 0.007288   | 0.0092802  |   1.3 | 20.08
Output  | 0.00022507 | 0.00059198 | 0.00098896 |   0.0 |  1.63
Modify  | 0.0026643  | 0.0036257  | 0.0048218  |   0.9 |  9.99
Other   |            | 0.0003802  |            |       |  1.05

Nlocal:    7529.41 ave 8000 max 7200 min
Histogram: 40 0 0 0 0 0 0 0 0 28
Nghost:    10207.6 ave 11577 max 9672 min
Histogram: 28 0 0 0 36 0 0 0 0 4
Neighs:    0 ave 0 max 0 min
Histogram: 68 0 0 0 0 0 0 0 0 0
FullNghs:  587294 ave 624000 max 561600 min
Histogram: 40 0 0 0 0 0 0 0 0 28

Total # of neighbors = 39936000
Ave neighs/atom = 78
Neighbor list builds = 0
Dangerous builds not checked
run		${rr}
run		7900
Per MPI rank memory allocation (min/avg/max) = 70.67 | 73.52 | 77.54 Mbytes
Step Temp E_pair E_mol TotEng Press 
      10    1.1253136   -6.3000032            0   -4.6120362   -2.5604641 
    1000   0.70387002   -5.6762797            0   -4.6204768   0.70242169 
    2000   0.69808753   -5.6672928            0   -4.6201635   0.74596348 
    3000   0.69794565   -5.6672137            0   -4.6202973   0.74637291 
    4000   0.69808336   -5.6676089            0   -4.6204859    0.7439793 
    5000   0.69789134   -5.6673976            0   -4.6205627   0.74393282 
    6000    0.6970507   -5.6662721            0   -4.6206981    0.7492692 
    7000   0.69671825    -5.665876            0   -4.6208006   0.74994016 
    7910   0.69701039   -5.6664366            0   -4.6209231   0.74994666 
Loop time of 27.6518 on 272 procs for 7900 steps with 512000 atoms

Performance: 123420.714 tau/day, 285.696 timesteps/s
191.7% CPU use with 68 MPI tasks x 4 OpenMP threads

MPI task timing breakdown:
Section |  min time  |  avg time  |  max time  |%varavg| %total
---------------------------------------------------------------
Pair    | 16.87      | 17.001     | 17.412     |   1.9 | 61.48
Neigh   | 3.4321     | 3.4836     | 3.5521     |   1.3 | 12.60
Comm    | 4.5806     | 4.9943     | 5.1896     |   4.0 | 18.06
Output  | 0.001797   | 0.0045937  | 0.005672   |   1.1 |  0.02
Modify  | 1.7387     | 1.8055     | 1.8468     |   1.6 |  6.53
Other   |            | 0.3628     |            |       |  1.31

Nlocal:    7529.41 ave 7601 max 7480 min
Histogram: 2 8 7 19 11 11 6 3 0 1
Nghost:    9987.06 ave 10049 max 9921 min
Histogram: 1 3 7 13 10 10 9 4 5 6
Neighs:    0 ave 0 max 0 min
Histogram: 68 0 0 0 0 0 0 0 0 0
FullNghs:  564769 ave 571735 max 558691 min
Histogram: 3 4 7 6 23 7 11 3 3 1

Total # of neighbors = 38404324
Ave neighs/atom = 75.0084
Neighbor list builds = 395
Dangerous builds not checked
Total wall time: 0:00:28
