LAMMPS (5 Jun 2019)
  using 4 OpenMP thread(s) per MPI task
package intel 1
package intel 0
# bulk Si via Stillinger-Weber

variable        N index on      # Newton Setting
variable        w index 10      # Warmup Timesteps
variable        t index 6200	# Main Run Timesteps
variable        m index 1       # Main Run Timestep Multiplier
variable        n index 0       # Use NUMA Mapping for Multi-Node
variable        p index 0       # Use Power Measurement

variable	x index 2
variable	y index 2
variable	z index 4

variable	xx equal 20*$x
variable	xx equal 20*2
variable	yy equal 20*$y
variable	yy equal 20*2
variable	zz equal 10*$z
variable	zz equal 10*4
variable        rr equal floor($t*$m)
variable        rr equal floor(6200*$m)
variable        rr equal floor(6200*1)
variable        root getenv LMP_ROOT

newton          $N
newton          on
if "$n > 0"     then "processors * * * grid numa"

units		metal
atom_style	atomic

lattice		diamond 5.431
Lattice spacing in x,y,z = 5.431 5.431 5.431
region		box block 0 ${xx} 0 ${yy} 0 ${zz}
region		box block 0 40 0 ${yy} 0 ${zz}
region		box block 0 40 0 40 0 ${zz}
region		box block 0 40 0 40 0 40
create_box	1 box
Created orthogonal box = (0 0 0) to (217.24 217.24 217.24)
  17 by 2 by 2 MPI processor grid
create_atoms	1 box
Created 512000 atoms
  create_atoms CPU = 0.0112729 secs

pair_style	sw/intel
#pair_coeff	* * ${root}/bench/POTENTIALS/Si.sw Si
pair_coeff	* * DATA/Si.sw Si
mass            1 28.06

velocity	all create 1000.0 376847 loop geom

neighbor	1.0 bin
neigh_modify    delay 5 every 1

fix		1 all nve/intel
thermo		1000
timestep	0.001

if "$p > 0"     then "run_style verlet/power"

if "$w > 0"     then "run $w"
run $w
run 10
Neighbor list info ...
  update every 1 steps, delay 5 steps, check yes
  max neighbors/atom: 2000, page size: 100000
  master list distance cutoff = 4.77118
  ghost atom cutoff = 4.77118
  binsize = 2.38559, bins = 92 92 92
  1 neighbor lists, perpetual/occasional/extra = 1 0 0
  (1) pair sw/intel, perpetual
      attributes: full, newton on, intel
      pair build: full/bin/intel
      stencil: full/bin/3d
      bin: intel
Per MPI rank memory allocation (min/avg/max) = 69.01 | 71.89 | 75.78 Mbytes
Step Temp E_pair E_mol TotEng Press 
       0         1000     -2220339            0     -2154158    6866.7609 
      10    551.81735   -2190612.5            0   -2154092.7    7812.1339 
Loop time of 0.0528021 on 272 procs for 10 steps with 512000 atoms

Performance: 16.363 ns/day, 1.467 hours/ns, 189.386 timesteps/s
152.2% CPU use with 68 MPI tasks x 4 OpenMP threads

MPI task timing breakdown:
Section |  min time  |  avg time  |  max time  |%varavg| %total
---------------------------------------------------------------
Pair    | 0.028751   | 0.030587   | 0.033069   |   0.7 | 57.93
Neigh   | 0          | 0          | 0          |   0.0 |  0.00
Comm    | 0.0098667  | 0.012354   | 0.015296   |   1.1 | 23.40
Output  | 0.00027609 | 0.00034687 | 0.00050998 |   0.0 |  0.66
Modify  | 0.0062139  | 0.0074394  | 0.0085063  |   0.6 | 14.09
Other   |            | 0.002075   |            |       |  3.93

Nlocal:    7529.41 ave 8000 max 7200 min
Histogram: 40 0 0 0 0 0 0 0 0 28
Nghost:    8001.47 ave 8908 max 7140 min
Histogram: 28 0 0 0 12 0 0 0 0 28
Neighs:    0 ave 0 max 0 min
Histogram: 68 0 0 0 0 0 0 0 0 0
FullNghs:  210824 ave 224000 max 201600 min
Histogram: 40 0 0 0 0 0 0 0 0 28

Total # of neighbors = 14336000
Ave neighs/atom = 28
Neighbor list builds = 0
Dangerous builds = 0
run             ${rr}
run             6200
Per MPI rank memory allocation (min/avg/max) = 69.01 | 71.89 | 75.78 Mbytes
Step Temp E_pair E_mol TotEng Press 
      10    551.81735   -2190612.5            0   -2154092.7    7812.1331 
    1000    498.86583   -2187123.2            0   -2154107.7    5770.5107 
    2000    497.32033   -2187020.4            0   -2154107.3    5780.9446 
    3000     492.8344   -2186723.3            0     -2154107    5739.2085 
    4000    496.51957   -2186967.3            0   -2154107.1    5788.4175 
    5000    496.96257   -2186996.7            0   -2154107.2    5785.2205 
    6000    496.75649   -2186983.2            0   -2154107.3    5791.3058 
    6210    496.46229   -2186963.6            0   -2154107.2    5791.3841 
Loop time of 37.089 on 272 procs for 6200 steps with 512000 atoms

Performance: 14.443 ns/day, 1.662 hours/ns, 167.165 timesteps/s
193.1% CPU use with 68 MPI tasks x 4 OpenMP threads

MPI task timing breakdown:
Section |  min time  |  avg time  |  max time  |%varavg| %total
---------------------------------------------------------------
Pair    | 21.3       | 22.141     | 23.593     |  14.6 | 59.70
Neigh   | 1.7155     | 1.7862     | 1.8656     |   3.5 |  4.82
Comm    | 6.3606     | 7.2621     | 8.1097     |  18.9 | 19.58
Output  | 0.0018418  | 0.0024211  | 0.0033095  |   0.7 |  0.01
Modify  | 3.6999     | 4.024      | 4.2274     |   6.6 | 10.85
Other   |            | 1.873      |            |       |  5.05

Nlocal:    7529.41 ave 8013 max 7176 min
Histogram: 28 5 3 0 5 3 0 3 5 16
Nghost:    8027.79 ave 8922 max 7127 min
Histogram: 21 3 3 5 0 4 4 0 8 20
Neighs:    0 ave 0 max 0 min
Histogram: 68 0 0 0 0 0 0 0 0 0
FullNghs:  210051 ave 223611 max 200202 min
Histogram: 28 6 2 0 5 3 0 3 5 16

Total # of neighbors = 14283460
Ave neighs/atom = 27.8974
Neighbor list builds = 209
Dangerous builds = 0
Total wall time: 0:00:37
